LAMMPS (17 Nov 2015)
# created by fftool

print "Methane in TIP4P water"
Methane in TIP4P water

units real
boundary p p p

atom_style full
ERROR: Unknown atom style (../atom.cpp:470)
